# vtk DataFile Version 2.0
UVP for 1D advection-diffusion problem
ASCII

DATASET UNSTRUCTURED_GRID
POINTS 160 double
  0.0000000000000000  0.0000000000000000  0.0000000000000000
  1.0000000000000000  0.0000000000000000  0.0000000000000000
  1.0000000000000000  1.0000000000000000  0.0000000000000000
  0.0000000000000000  1.0000000000000000  0.0000000000000000
  -0.0000000000000000  0.3000000000000000  0.0000000000000000
  0.0000000000000000  0.1500000000000000  0.0000000000000000
  0.0000000000000000  0.0750000000000000  0.0000000000000000
  -0.0000000000000000  0.2250000000000000  0.0000000000000000
  0.5997990000000000  0.0000000000000000  0.0000000000000000
  0.7998050000000000  0.0000000000000000  0.0000000000000000
  0.3997940000000000  0.0000000000000000  0.0000000000000000
  0.1998970000000000  0.0000000000000000  0.0000000000000000
  0.8999020000000000  0.0000000000000000  0.0000000000000000
  0.6998020000000000  0.0000000000000000  0.0000000000000000
  0.4997970000000000  0.0000000000000000  0.0000000000000000
  0.2998450000000000  0.0000000000000000  0.0000000000000000
  0.0999480000000000  0.0000000000000000  0.0000000000000000
  1.0000000000000000  0.5998370000000000  0.0000000000000000
  1.0000000000000000  0.7998050000000000  0.0000000000000000
  1.0000000000000000  0.3998850000000000  0.0000000000000000
  1.0000000000000000  0.1999340000000000  0.0000000000000000
  1.0000000000000000  0.8999020000000000  0.0000000000000000
  1.0000000000000000  0.6998210000000000  0.0000000000000000
  1.0000000000000000  0.4998610000000000  0.0000000000000000
  1.0000000000000000  0.2999090000000000  0.0000000000000000
  1.0000000000000000  0.0999670000000000  0.0000000000000000
  0.4001670000000000  1.0000000000000000  0.0000000000000000
  0.2001950000000000  1.0000000000000000  0.0000000000000000
  0.6001210000000000  1.0000000000000000  0.0000000000000000
  0.8000610000000000  1.0000000000000000  0.0000000000000000
  0.1000980000000000  1.0000000000000000  0.0000000000000000
  0.3001810000000000  1.0000000000000000  0.0000000000000000
  0.5001440000000000  1.0000000000000000  0.0000000000000000
  0.7000910000000000  1.0000000000000000  0.0000000000000000
  0.9000300000000000  1.0000000000000000  0.0000000000000000
  -0.0000000000000000  0.4757070000000000  0.0000000000000000
  -0.0000000000000000  0.6506060000000000  0.0000000000000000
  -0.0000000000000000  0.8253030000000000  0.0000000000000000
  -0.0000000000000000  0.3878540000000000  0.0000000000000000
  -0.0000000000000000  0.5631570000000000  0.0000000000000000
  -0.0000000000000000  0.7379550000000000  0.0000000000000000
  -0.0000000000000000  0.9126520000000000  0.0000000000000000
  0.1491380000000000  0.1248550000000000  0.0000000000000000
  0.2897630000000000  0.1020800000000000  0.0000000000000000
  0.7896730000000000  0.1511470000000000  0.0000000000000000
  0.1656730000000000  0.8537700000000000  0.0000000000000000
  0.8659230000000000  0.8499350000000000  0.0000000000000000
  0.1178730000000000  0.3007650000000000  0.0000000000000000
  0.6003280000000000  0.0927320000000000  0.0000000000000000
  0.8630020000000000  0.4187770000000000  0.0000000000000000
  0.1584980000000000  0.6863260000000000  0.0000000000000000
  0.4696760000000000  0.8392100000000000  0.0000000000000000
  0.4301360000000000  0.1646660000000000  0.0000000000000000
  0.8473600000000000  0.6637210000000000  0.0000000000000000
  0.1489290000000000  0.5080070000000000  0.0000000000000000
  0.3114460000000000  0.8852380000000000  0.0000000000000000
  0.6805460000000000  0.7888320000000000  0.0000000000000000
  0.2698510000000000  0.2208810000000000  0.0000000000000000
  0.5064440000000000  0.4213200000000000  0.0000000000000000
  0.3208040000000000  0.7427030000000000  0.0000000000000000
  0.2966460000000000  0.3819490000000000  0.0000000000000000
  0.4172310000000000  0.2852860000000000  0.0000000000000000
  0.4962860000000000  0.6467020000000000  0.0000000000000000
  0.6806990000000001  0.5327170000000000  0.0000000000000000
  0.3212680000000000  0.5645010000000000  0.0000000000000000
  0.5818400000000000  0.2391550000000000  0.0000000000000000
  0.7472299999999999  0.3197780000000000  0.0000000000000000
  0.1745170000000000  0.0624270000000000  0.0000000000000000
  0.0745690000000000  0.0624270000000000  0.0000000000000000
  0.0745690000000000  0.1374270000000000  0.0000000000000000
  0.2448300000000000  0.0510400000000000  0.0000000000000000
  0.2194500000000000  0.1134680000000000  0.0000000000000000
  0.8948370000000000  0.1755400000000000  0.0000000000000000
  0.8948370000000000  0.0755740000000000  0.0000000000000000
  0.7947390000000000  0.0755740000000000  0.0000000000000000
  0.0828370000000000  0.9268850000000000  0.0000000000000000
  0.1829340000000000  0.9268850000000000  0.0000000000000000
  0.0828370000000000  0.8395370000000000  0.0000000000000000
  0.9329610000000000  0.9249680000000000  0.0000000000000000
  0.9329610000000000  0.8248700000000000  0.0000000000000000
  0.8329920000000000  0.9249680000000000  0.0000000000000000
  0.0589370000000000  0.3003830000000000  0.0000000000000000
  0.0589370000000000  0.3882360000000000  0.0000000000000000
  0.0589370000000000  0.2253830000000000  0.0000000000000000
  0.6000640000000000  0.0463660000000000  0.0000000000000000
  0.5000610000000000  0.0463660000000000  0.0000000000000000
  0.7000660000000000  0.0463660000000000  0.0000000000000000
  0.6950010000000000  0.1219400000000000  0.0000000000000000
  0.9315010000000000  0.5093070000000000  0.0000000000000000
  0.9315010000000000  0.4093310000000000  0.0000000000000000
  0.9315010000000000  0.3093550000000000  0.0000000000000000
  0.0792490000000000  0.6684660000000000  0.0000000000000000
  0.0792490000000000  0.7558150000000000  0.0000000000000000
  0.1620850000000000  0.7700480000000000  0.0000000000000000
  0.4349210000000000  0.9196050000000000  0.0000000000000000
  0.5348980000000000  0.9196050000000000  0.0000000000000000
  0.9236799999999999  0.6317790000000000  0.0000000000000000
  0.8551810000000000  0.5412490000000000  0.0000000000000000
  0.9236799999999999  0.7317630000000001  0.0000000000000000
  0.8566410000000000  0.7568279999999999  0.0000000000000000
  0.0744650000000000  0.4918570000000000  0.0000000000000000
  0.1334010000000000  0.4043860000000000  0.0000000000000000
  0.0744650000000000  0.5793070000000000  0.0000000000000000
  0.1537130000000000  0.5971670000000000  0.0000000000000000
  0.3558060000000000  0.9426190000000000  0.0000000000000000
  0.3905610000000000  0.8622240000000000  0.0000000000000000
  0.2558210000000000  0.9426190000000000  0.0000000000000000
  0.2385590000000000  0.8695040000000001  0.0000000000000000
  0.6403340000000000  0.8944160000000000  0.0000000000000000
  0.5751110000000000  0.8140210000000000  0.0000000000000000
  0.7732340000000000  0.8193840000000000  0.0000000000000000
  0.7639530000000000  0.7262760000000000  0.0000000000000000
  0.7403030000000000  0.8944160000000000  0.0000000000000000
  0.2798070000000000  0.1614810000000000  0.0000000000000000
  0.3499940000000000  0.1927740000000000  0.0000000000000000
  0.3599500000000000  0.1333730000000000  0.0000000000000000
  0.2432380000000000  0.7982370000000000  0.0000000000000000
  0.3161250000000000  0.8139710000000000  0.0000000000000000
  0.2396510000000000  0.7145150000000000  0.0000000000000000
  0.2072600000000000  0.3413570000000000  0.0000000000000000
  0.2832480000000000  0.3014150000000000  0.0000000000000000
  0.1938620000000000  0.2608230000000000  0.0000000000000000
  0.2227880000000000  0.4449780000000000  0.0000000000000000
  0.4236840000000000  0.2249760000000000  0.0000000000000000
  0.3435410000000000  0.2530840000000000  0.0000000000000000
  0.3569380000000000  0.3336170000000000  0.0000000000000000
  0.4829810000000000  0.7429559999999999  0.0000000000000000
  0.5884160000000001  0.7177670000000000  0.0000000000000000
  0.7718500000000000  0.4757470000000000  0.0000000000000000
  0.7640290000000000  0.5982189999999999  0.0000000000000000
  0.5935710000000000  0.4770190000000000  0.0000000000000000
  0.5013649999999999  0.5340110000000000  0.0000000000000000
  0.5884920000000000  0.5897100000000000  0.0000000000000000
  0.6806219999999999  0.6607750000000000  0.0000000000000000
  0.2350980000000000  0.5362540000000000  0.0000000000000000
  0.3089570000000000  0.4732250000000000  0.0000000000000000
  0.2398830000000000  0.6254140000000000  0.0000000000000000
  0.3210360000000000  0.6536020000000000  0.0000000000000000
  0.4138560000000000  0.4929110000000000  0.0000000000000000
  0.4087770000000000  0.6056020000000000  0.0000000000000000
  0.4085450000000000  0.6947030000000000  0.0000000000000000
  0.6857569999999999  0.1951510000000000  0.0000000000000000
  0.5910840000000001  0.1659440000000000  0.0000000000000000
  0.5152320000000000  0.1286990000000000  0.0000000000000000
  0.5059880000000000  0.2019110000000000  0.0000000000000000
  0.4995360000000000  0.2622210000000000  0.0000000000000000
  0.5441420000000000  0.3302380000000000  0.0000000000000000
  0.4618370000000000  0.3533030000000000  0.0000000000000000
  0.8051160000000001  0.3692770000000000  0.0000000000000000
  0.7139640000000000  0.4262470000000000  0.0000000000000000
  0.7684520000000000  0.2354620000000000  0.0000000000000000
  0.6645350000000000  0.2794660000000000  0.0000000000000000
  0.1335060000000000  0.2128100000000000  0.0000000000000000
  0.2094940000000000  0.1728680000000000  0.0000000000000000
  0.8736150000000000  0.2598560000000000  0.0000000000000000
  0.3447790000000000  0.0510400000000000  0.0000000000000000
  0.3952400000000000  0.7909560000000000  0.0000000000000000
  0.4015450000000000  0.4016340000000000  0.0000000000000000
  0.6268370000000000  0.3705490000000000  0.0000000000000000
  0.4149650000000000  0.0823330000000000  0.0000000000000000

CELLS  276  1104
  3  67  42  68
  3  16  11  67
  3  68  0  16
  3  68  16  67
  3  68  42  69
  3  6  0  68
  3  69  5  6
  3  69  6  68
  3  70  43  71
  3  67  11  70
  3  71  42  67
  3  71  67  70
  3  72  44  73
  3  25  20  72
  3  73  1  25
  3  73  25  72
  3  73  44  74
  3  12  1  73
  3  74  9  12
  3  74  12  73
  3  75  45  76
  3  30  3  75
  3  76  27  30
  3  76  30  75
  3  77  45  75
  3  41  37  77
  3  75  3  41
  3  75  41  77
  3  78  46  79
  3  21  2  78
  3  79  18  21
  3  79  21  78
  3  80  46  78
  3  34  29  80
  3  78  2  34
  3  78  34  80
  3  81  47  82
  3  38  4  81
  3  82  35  38
  3  82  38  81
  3  83  47  81
  3  7  5  83
  3  81  4  7
  3  81  7  83
  3  84  48  85
  3  14  8  84
  3  85  10  14
  3  85  14  84
  3  86  9  74
  3  87  48  86
  3  74  44  87
  3  74  87  86
  3  86  48  84
  3  13  9  86
  3  84  8  13
  3  84  13  86
  3  88  49  89
  3  23  17  88
  3  89  19  23
  3  89  23  88
  3  89  49  90
  3  24  19  89
  3  90  20  24
  3  90  24  89
  3  91  50  92
  3  40  36  91
  3  92  37  40
  3  92  40  91
  3  92  50  93
  3  77  37  92
  3  93  45  77
  3  93  77  92
  3  94  51  95
  3  32  26  94
  3  95  28  32
  3  95  32  94
  3  96  53  97
  3  88  17  96
  3  97  49  88
  3  97  88  96
  3  98  18  79
  3  99  53  98
  3  79  46  99
  3  79  99  98
  3  98  53  96
  3  22  18  98
  3  96  17  22
  3  96  22  98
  3  100  35  82
  3  101  54  100
  3  82  47  101
  3  82  101  100
  3  100  54  102
  3  39  35  100
  3  102  36  39
  3  102  39  100
  3  102  54  103
  3  91  36  102
  3  103  50  91
  3  103  91  102
  3  104  55  105
  3  94  26  104
  3  105  51  94
  3  105  94  104
  3  106  27  76
  3  107  55  106
  3  76  45  107
  3  76  107  106
  3  106  55  104
  3  31  27  106
  3  104  26  31
  3  104  31  106
  3  108  28  95
  3  109  56  108
  3  95  51  109
  3  95  109  108
  3  110  56  111
  3  99  46  110
  3  111  53  99
  3  111  99  110
  3  108  56  112
  3  33  28  108
  3  112  29  33
  3  112  33  108
  3  112  56  110
  3  80  29  112
  3  110  46  80
  3  110  80  112
  3  113  43  115
  3  114  57  113
  3  115  52  114
  3  115  114  113
  3  116  59  117
  3  107  45  116
  3  117  55  107
  3  117  107  116
  3  116  45  93
  3  118  59  116
  3  93  50  118
  3  93  118  116
  3  119  47  121
  3  120  60  119
  3  121  57  120
  3  121  120  119
  3  119  60  122
  3  101  47  119
  3  122  54  101
  3  122  101  119
  3  123  61  124
  3  114  52  123
  3  124  57  114
  3  124  114  123
  3  124  61  125
  3  120  57  124
  3  125  60  120
  3  125  120  124
  3  126  62  127
  3  109  51  126
  3  127  56  109
  3  127  109  126
  3  128  49  97
  3  129  63  128
  3  97  53  129
  3  97  129  128
  3  130  63  132
  3  131  58  130
  3  132  62  131
  3  132  131  130
  3  133  56  127
  3  132  63  133
  3  127  62  132
  3  127  132  133
  3  129  53  111
  3  133  63  129
  3  111  56  133
  3  111  133  129
  3  134  54  122
  3  135  64  134
  3  122  60  135
  3  122  135  134
  3  136  64  137
  3  118  50  136
  3  137  59  118
  3  137  118  136
  3  136  50  103
  3  134  64  136
  3  103  54  134
  3  103  134  136
  3  138  58  131
  3  139  64  138
  3  131  62  139
  3  131  139  138
  3  137  64  139
  3  140  59  137
  3  139  62  140
  3  139  140  137
  3  141  65  142
  3  87  44  141
  3  142  48  87
  3  142  87  141
  3  142  65  144
  3  143  48  142
  3  144  52  143
  3  144  143  142
  3  144  65  145
  3  123  52  144
  3  145  61  123
  3  145  123  144
  3  146  58  147
  3  145  65  146
  3  147  61  145
  3  147  145  146
  3  148  49  128
  3  149  66  148
  3  128  63  149
  3  128  149  148
  3  150  66  151
  3  141  44  150
  3  151  65  141
  3  151  141  150
  3  152  47  83
  3  69  42  152
  3  83  5  69
  3  83  69  152
  3  153  57  121
  3  152  42  153
  3  121  47  152
  3  121  152  153
  3  153  42  71
  3  113  57  153
  3  71  43  113
  3  71  113  153
  3  154  20  90
  3  148  66  154
  3  90  49  148
  3  90  148  154
  3  154  66  150
  3  72  20  154
  3  150  44  72
  3  150  72  154
  3  155  43  70
  3  15  10  155
  3  70  11  15
  3  70  15  155
  3  156  59  140
  3  126  51  156
  3  140  62  126
  3  140  126  156
  3  156  51  105
  3  117  59  156
  3  105  55  117
  3  105  117  156
  3  157  58  138
  3  135  60  157
  3  138  64  135
  3  138  135  157
  3  157  60  125
  3  147  58  157
  3  125  61  147
  3  125  147  157
  3  158  58  146
  3  151  66  158
  3  146  65  151
  3  146  151  158
  3  158  66  149
  3  130  58  158
  3  149  63  130
  3  149  130  158
  3  159  52  115
  3  155  10  159
  3  115  43  155
  3  115  155  159
  3  159  10  85
  3  143  52  159
  3  85  48  143
  3  85  143  159

CELL_TYPES 276
5
5
5
5
5
5
5
5
5
5
5
5
5
5
5
5
5
5
5
5
5
5
5
5
5
5
5
5
5
5
5
5
5
5
5
5
5
5
5
5
5
5
5
5
5
5
5
5
5
5
5
5
5
5
5
5
5
5
5
5
5
5
5
5
5
5
5
5
5
5
5
5
5
5
5
5
5
5
5
5
5
5
5
5
5
5
5
5
5
5
5
5
5
5
5
5
5
5
5
5
5
5
5
5
5
5
5
5
5
5
5
5
5
5
5
5
5
5
5
5
5
5
5
5
5
5
5
5
5
5
5
5
5
5
5
5
5
5
5
5
5
5
5
5
5
5
5
5
5
5
5
5
5
5
5
5
5
5
5
5
5
5
5
5
5
5
5
5
5
5
5
5
5
5
5
5
5
5
5
5
5
5
5
5
5
5
5
5
5
5
5
5
5
5
5
5
5
5
5
5
5
5
5
5
5
5
5
5
5
5
5
5
5
5
5
5
5
5
5
5
5
5
5
5
5
5
5
5
5
5
5
5
5
5
5
5
5
5
5
5
5
5
5
5
5
5
5
5
5
5
5
5
5
5
5
5
5
5
5
5
5
5
5
5
5
5
5
5
5
5
5
5
5
5
5
5

POINT_DATA 160
SCALARS concentration double
LOOKUP_TABLE default
  0.0000000000000000
  0.0000000000000000
  1.0000000000000000
  1.0000000000000000
  1.0000000000000000
  0.0000000000000000
  0.0000000000000000
  0.0000000000000000
  0.0000000000000000
  0.0000000000000000
  0.0000000000000000
  0.0000000000000000
  0.0000000000000000
  0.0000000000000000
  0.0000000000000000
  0.0000000000000000
  0.0000000000000000
  0.0000000000000000
  0.0000000000000000
  0.0000000000000000
  0.0000000000000000
  0.0000000000000000
  0.0000000000000000
  0.0000000000000000
  0.0000000000000000
  0.0000000000000000
  1.0000000000000000
  1.0000000000000000
  1.0000000000000000
  1.0000000000000000
  1.0000000000000000
  1.0000000000000000
  1.0000000000000000
  1.0000000000000000
  1.0000000000000000
  1.0000000000000000
  1.0000000000000000
  1.0000000000000000
  1.0000000000000000
  1.0000000000000000
  1.0000000000000000
  1.0000000000000000
  0.3777207061459680
  0.9834829440351742
  0.9721179059654707
  0.9999999993147745
  0.9934831073064208
  0.9981549475022666
  0.9696813469623342
  0.9703333912017608
  0.9999999909230904
  0.9999994055257000
  0.9993230687159355
  0.9945641369549538
  0.9999838633654202
  0.9999999832705214
  0.9999389252948890
  1.0008882515179101
  0.9999736489536105
  0.9999999339315705
  0.9999697508519098
  0.9999523498140547
  0.9999910980150735
  0.9991283749261566
  0.9999996380661741
  0.9990635552223631
  0.9972266719128173
  0.0248754986547208
  0.0041649358712835
  -0.0235410450433548
  0.5890314577976643
  0.9844369327185429
  0.9052537769096086
  0.8398483816052367
  0.8345555133073159
  0.9999999999310176
  0.9999999995720500
  0.9999999998045240
  0.9151798944712424
  0.9263042691833003
  0.9979790319946570
  0.9880685297784153
  0.9998272412658405
  0.5057515677685438
  0.8302841166871289
  0.9277013069292888
  0.8278399465913828
  0.9698406197571031
  0.9416168324355260
  0.8309432323393885
  0.8306655675567068
  1.0000002263702710
  0.9999999942941292
  0.9999999975092189
  0.9999999155063166
  0.9999985646970977
  0.9262940795488194
  0.9952586375496761
  0.9256985822101235
  0.9942436279329214
  1.0000215988068046
  1.0003631021119164
  0.9999960490376691
  1.0000002251170621
  0.9999999825184943
  0.9999998829852609
  0.9999999979617364
  0.9999999966212357
  0.9999860793004911
  0.9999961067522573
  0.9994070179644474
  0.9994212248080498
  0.9998727011392884
  0.9957542130419389
  0.9991242046131324
  0.9991409264463916
  0.9999999930371156
  0.9999999629603822
  0.9999999841326285
  1.0003676045288896
  1.0001365940309652
  1.0051512132380691
  0.9999728272793513
  0.9998408284135429
  0.9999729317030168
  0.9999672729073364
  0.9999963966464479
  0.9999792358514576
  0.9951127813163967
  0.9992766172955108
  0.9999034152242622
  0.9999912858395278
  0.9998970327721628
  0.9998818270186025
  1.0000014584201511
  1.0000011213758897
  0.9999999680580787
  0.9999999035250188
  0.9999967557372154
  0.9999990898341239
  0.9999992958502236
  0.9949292290863674
  0.9946389867149693
  0.9949719261998968
  0.9990848595432287
  0.9998353740480753
  0.9998420972913987
  0.9999738501876509
  0.9814124469811318
  0.9982388725382380
  0.9945013895741388
  0.9991737929413478
  1.0485278430625509
  1.0020573774069610
  0.9483330714005145
  0.8464122664402236
  0.9999994586039059
  0.9999996226597622
  0.9998402500342660
  0.9745083277783679
SCALARS ga double
LOOKUP_TABLE default
  0.0000000000000000
  0.0000000000000000
  0.0000000000000000
  0.0000000000000000
  0.0000000000000000
  0.0000000000000000
  0.0000000000000000
  0.0000000000000000
  0.0000000000000000
  0.0000000000000000
  0.0000000000000000
  0.0000000000000000
  0.0000000000000000
  0.0000000000000000
  0.0000000000000000
  0.0000000000000000
  0.0000000000000000
  0.0000000000000000
  0.0000000000000000
  0.0000000000000000
  0.0000000000000000
  0.0000000000000000
  0.0000000000000000
  0.0000000000000000
  0.0000000000000000
  0.0000000000000000
  0.0000000000000000
  0.0000000000000000
  0.0000000000000000
  0.0000000000000000
  0.0000000000000000
  0.0000000000000000
  0.0000000000000000
  0.0000000000000000
  0.0000000000000000
  0.0000000000000000
  0.0000000000000000
  0.0000000000000000
  0.0000000000000000
  0.0000000000000000
  0.0000000000000000
  0.0000000000000000
  0.0000000000000000
  0.0000000000000000
  0.0000000000000000
  0.0000000000000000
  0.0000000000000000
  0.0000000000000000
  0.0000000000000000
  0.0000000000000000
  0.0000000000000000
  0.0000000000000000
  0.0000000000000000
  0.0000000000000000
  0.0000000000000000
  0.0000000000000000
  0.0000000000000000
  0.0000000000000000
  0.0000000000000000
  0.0000000000000000
  0.0000000000000000
  0.0000000000000000
  0.0000000000000000
  0.0000000000000000
  0.0000000000000000
  0.0000000000000000
  0.0000000000000000
  0.0000000000000000
  0.0000000000000000
  0.0000000000000000
  0.0000000000000000
  0.0000000000000000
  0.0000000000000000
  0.0000000000000000
  0.0000000000000000
  0.0000000000000000
  0.0000000000000000
  0.0000000000000000
  0.0000000000000000
  0.0000000000000000
  0.0000000000000000
  0.0000000000000000
  0.0000000000000000
  0.0000000000000000
  0.0000000000000000
  0.0000000000000000
  0.0000000000000000
  0.0000000000000000
  0.0000000000000000
  0.0000000000000000
  0.0000000000000000
  0.0000000000000000
  0.0000000000000000
  0.0000000000000000
  0.0000000000000000
  0.0000000000000000
  0.0000000000000000
  0.0000000000000000
  0.0000000000000000
  0.0000000000000000
  0.0000000000000000
  0.0000000000000000
  0.0000000000000000
  0.0000000000000000
  0.0000000000000000
  0.0000000000000000
  0.0000000000000000
  0.0000000000000000
  0.0000000000000000
  0.0000000000000000
  0.0000000000000000
  0.0000000000000000
  0.0000000000000000
  0.0000000000000000
  0.0000000000000000
  0.0000000000000000
  0.0000000000000000
  0.0000000000000000
  0.0000000000000000
  0.0000000000000000
  0.0000000000000000
  0.0000000000000000
  0.0000000000000000
  0.0000000000000000
  0.0000000000000000
  0.0000000000000000
  0.0000000000000000
  0.0000000000000000
  0.0000000000000000
  0.0000000000000000
  0.0000000000000000
  0.0000000000000000
  0.0000000000000000
  0.0000000000000000
  0.0000000000000000
  0.0000000000000000
  0.0000000000000000
  0.0000000000000000
  0.0000000000000000
  0.0000000000000000
  0.0000000000000000
  0.0000000000000000
  0.0000000000000000
  0.0000000000000000
  0.0000000000000000
  0.0000000000000000
  0.0000000000000000
  0.0000000000000000
  0.0000000000000000
  0.0000000000000000
  0.0000000000000000
  0.0000000000000000
  0.0000000000000000
  0.0000000000000000
  0.0000000000000000
  0.0000000000000000
  0.0000000000000000
  0.0000000000000000
  0.0000000000000000
  0.0000000000000000
CELL_DATA 276
SCALARS error double
LOOKUP_TABLE default
  0.0000000000000000
  0.0000000000000000
  0.0000000000000000
  0.0000000000000000
  0.0000000000000000
  0.0000000000000000
  0.0000000000000000
  0.0000000000000000
  0.0000000000000000
  0.0000000000000000
  0.0000000000000000
  0.0000000000000000
  0.0000000000000000
  0.0000000000000000
  0.0000000000000000
  0.0000000000000000
  0.0000000000000000
  0.0000000000000000
  0.0000000000000000
  0.0000000000000000
  0.0000000000000000
  0.0000000000000000
  0.0000000000000000
  0.0000000000000000
  0.0000000000000000
  0.0000000000000000
  0.0000000000000000
  0.0000000000000000
  0.0000000000000000
  0.0000000000000000
  0.0000000000000000
  0.0000000000000000
  0.0000000000000000
  0.0000000000000000
  0.0000000000000000
  0.0000000000000000
  0.0000000000000000
  0.0000000000000000
  0.0000000000000000
  0.0000000000000000
  0.0000000000000000
  0.0000000000000000
  0.0000000000000000
  0.0000000000000000
  0.0000000000000000
  0.0000000000000000
  0.0000000000000000
  0.0000000000000000
  0.0000000000000000
  0.0000000000000000
  0.0000000000000000
  0.0000000000000000
  0.0000000000000000
  0.0000000000000000
  0.0000000000000000
  0.0000000000000000
  0.0000000000000000
  0.0000000000000000
  0.0000000000000000
  0.0000000000000000
  0.0000000000000000
  0.0000000000000000
  0.0000000000000000
  0.0000000000000000
  0.0000000000000000
  0.0000000000000000
  0.0000000000000000
  0.0000000000000000
  0.0000000000000000
  0.0000000000000000
  0.0000000000000000
  0.0000000000000000
  0.0000000000000000
  0.0000000000000000
  0.0000000000000000
  0.0000000000000000
  0.0000000000000000
  0.0000000000000000
  0.0000000000000000
  0.0000000000000000
  0.0000000000000000
  0.0000000000000000
  0.0000000000000000
  0.0000000000000000
  0.0000000000000000
  0.0000000000000000
  0.0000000000000000
  0.0000000000000000
  0.0000000000000000
  0.0000000000000000
  0.0000000000000000
  0.0000000000000000
  0.0000000000000000
  0.0000000000000000
  0.0000000000000000
  0.0000000000000000
  0.0000000000000000
  0.0000000000000000
  0.0000000000000000
  0.0000000000000000
  0.0000000000000000
  0.0000000000000000
  0.0000000000000000
  0.0000000000000000
  0.0000000000000000
  0.0000000000000000
  0.0000000000000000
  0.0000000000000000
  0.0000000000000000
  0.0000000000000000
  0.0000000000000000
  0.0000000000000000
  0.0000000000000000
  0.0000000000000000
  0.0000000000000000
  0.0000000000000000
  0.0000000000000000
  0.0000000000000000
  0.0000000000000000
  0.0000000000000000
  0.0000000000000000
  0.0000000000000000
  0.0000000000000000
  0.0000000000000000
  0.0000000000000000
  0.0000000000000000
  0.0000000000000000
  0.0000000000000000
  0.0000000000000000
  0.0000000000000000
  0.0000000000000000
  0.0000000000000000
  0.0000000000000000
  0.0000000000000000
  0.0000000000000000
  0.0000000000000000
  0.0000000000000000
  0.0000000000000000
  0.0000000000000000
  0.0000000000000000
  0.0000000000000000
  0.0000000000000000
  0.0000000000000000
  0.0000000000000000
  0.0000000000000000
  0.0000000000000000
  0.0000000000000000
  0.0000000000000000
  0.0000000000000000
  0.0000000000000000
  0.0000000000000000
  0.0000000000000000
  0.0000000000000000
  0.0000000000000000
  0.0000000000000000
  0.0000000000000000
  0.0000000000000000
  0.0000000000000000
  0.0000000000000000
  0.0000000000000000
  0.0000000000000000
  0.0000000000000000
  0.0000000000000000
  0.0000000000000000
  0.0000000000000000
  0.0000000000000000
  0.0000000000000000
  0.0000000000000000
  0.0000000000000000
  0.0000000000000000
  0.0000000000000000
  0.0000000000000000
  0.0000000000000000
  0.0000000000000000
  0.0000000000000000
  0.0000000000000000
  0.0000000000000000
  0.0000000000000000
  0.0000000000000000
  0.0000000000000000
  0.0000000000000000
  0.0000000000000000
  0.0000000000000000
  0.0000000000000000
  0.0000000000000000
  0.0000000000000000
  0.0000000000000000
  0.0000000000000000
  0.0000000000000000
  0.0000000000000000
  0.0000000000000000
  0.0000000000000000
  0.0000000000000000
  0.0000000000000000
  0.0000000000000000
  0.0000000000000000
  0.0000000000000000
  0.0000000000000000
  0.0000000000000000
  0.0000000000000000
  0.0000000000000000
  0.0000000000000000
  0.0000000000000000
  0.0000000000000000
  0.0000000000000000
  0.0000000000000000
  0.0000000000000000
  0.0000000000000000
  0.0000000000000000
  0.0000000000000000
  0.0000000000000000
  0.0000000000000000
  0.0000000000000000
  0.0000000000000000
  0.0000000000000000
  0.0000000000000000
  0.0000000000000000
  0.0000000000000000
  0.0000000000000000
  0.0000000000000000
  0.0000000000000000
  0.0000000000000000
  0.0000000000000000
  0.0000000000000000
  0.0000000000000000
  0.0000000000000000
  0.0000000000000000
  0.0000000000000000
  0.0000000000000000
  0.0000000000000000
  0.0000000000000000
  0.0000000000000000
  0.0000000000000000
  0.0000000000000000
  0.0000000000000000
  0.0000000000000000
  0.0000000000000000
  0.0000000000000000
  0.0000000000000000
  0.0000000000000000
  0.0000000000000000
  0.0000000000000000
  0.0000000000000000
  0.0000000000000000
  0.0000000000000000
  0.0000000000000000
  0.0000000000000000
  0.0000000000000000
  0.0000000000000000
  0.0000000000000000
  0.0000000000000000
  0.0000000000000000
  0.0000000000000000
  0.0000000000000000
  0.0000000000000000
  0.0000000000000000
  0.0000000000000000
  0.0000000000000000
  0.0000000000000000
  0.0000000000000000
  0.0000000000000000
  0.0000000000000000
  0.0000000000000000
  0.0000000000000000
  0.0000000000000000
  0.0000000000000000
  0.0000000000000000
  0.0000000000000000
  0.0000000000000000
  0.0000000000000000
  0.0000000000000000
  0.0000000000000000
  0.0000000000000000
  0.0000000000000000
  0.0000000000000000
  0.0000000000000000
