# vtk DataFile Version 2.0
UVP for 1D advection-diffusion problem
ASCII

DATASET UNSTRUCTURED_GRID
POINTS 1681 double
  1.0000000000000000  1.0000000000000000  0.0000000000000000
  0.0000000000000000  1.0000000000000000  0.0000000000000000
  1.0000000000000000  0.0000000000000000  0.0000000000000000
  0.0000000000000000  0.0000000000000000  0.0000000000000000
  1.0000000000000000  0.0249870000000000  0.0000000000000000
  1.0000000000000000  0.0499740000000000  0.0000000000000000
  1.0000000000000000  0.0749800000000000  0.0000000000000000
  1.0000000000000000  0.0999760000000000  0.0000000000000000
  1.0000000000000000  0.1250000000000000  0.0000000000000000
  1.0000000000000000  0.1499870000000000  0.0000000000000000
  1.0000000000000000  0.1749740000000000  0.0000000000000000
  1.0000000000000000  0.1999800000000000  0.0000000000000000
  1.0000000000000000  0.2249760000000000  0.0000000000000000
  1.0000000000000000  0.2500000000000000  0.0000000000000000
  1.0000000000000000  0.2749870000000000  0.0000000000000000
  1.0000000000000000  0.2999740000000000  0.0000000000000000
  1.0000000000000000  0.3249800000000000  0.0000000000000000
  1.0000000000000000  0.3499760000000000  0.0000000000000000
  1.0000000000000000  0.3750000000000000  0.0000000000000000
  1.0000000000000000  0.3999870000000000  0.0000000000000000
  1.0000000000000000  0.4249740000000000  0.0000000000000000
  1.0000000000000000  0.4499800000000000  0.0000000000000000
  1.0000000000000000  0.4749760000000000  0.0000000000000000
  1.0000000000000000  0.5000000000000000  0.0000000000000000
  1.0000000000000000  0.5249870000000000  0.0000000000000000
  1.0000000000000000  0.5499740000000000  0.0000000000000000
  1.0000000000000000  0.5749800000000000  0.0000000000000000
  1.0000000000000000  0.5999760000000000  0.0000000000000000
  1.0000000000000000  0.6250000000000000  0.0000000000000000
  1.0000000000000000  0.6499870000000000  0.0000000000000000
  1.0000000000000000  0.6749740000000000  0.0000000000000000
  1.0000000000000000  0.6999800000000000  0.0000000000000000
  1.0000000000000000  0.7249760000000000  0.0000000000000000
  1.0000000000000000  0.7500000000000000  0.0000000000000000
  1.0000000000000000  0.7749870000000000  0.0000000000000000
  1.0000000000000000  0.7999740000000000  0.0000000000000000
  1.0000000000000000  0.8249800000000000  0.0000000000000000
  1.0000000000000000  0.8499760000000000  0.0000000000000000
  1.0000000000000000  0.8750000000000000  0.0000000000000000
  1.0000000000000000  0.8999870000000000  0.0000000000000000
  1.0000000000000000  0.9249740000000000  0.0000000000000000
  1.0000000000000000  0.9499800000000000  0.0000000000000000
  1.0000000000000000  0.9749760000000000  0.0000000000000000
  0.9750000000000000  1.0000000000000000  0.0000000000000000
  0.9500000000000000  1.0000000000000000  0.0000000000000000
  0.9250000000000000  1.0000000000000000  0.0000000000000000
  0.9000000000000000  1.0000000000000000  0.0000000000000000
  0.8750000000000000  1.0000000000000000  0.0000000000000000
  0.8500000000000000  1.0000000000000000  0.0000000000000000
  0.8250000000000000  1.0000000000000000  0.0000000000000000
  0.8000000000000000  1.0000000000000000  0.0000000000000000
  0.7750000000000000  1.0000000000000000  0.0000000000000000
  0.7500000000000000  1.0000000000000000  0.0000000000000000
  0.7250000000000000  1.0000000000000000  0.0000000000000000
  0.7000000000000000  1.0000000000000000  0.0000000000000000
  0.6750000000000000  1.0000000000000000  0.0000000000000000
  0.6500000000000000  1.0000000000000000  0.0000000000000000
  0.6250000000000000  1.0000000000000000  0.0000000000000000
  0.6000000000000000  1.0000000000000000  0.0000000000000000
  0.5750000000000000  1.0000000000000000  0.0000000000000000
  0.5500000000000000  1.0000000000000000  0.0000000000000000
  0.5250000000000000  1.0000000000000000  0.0000000000000000
  0.5000000000000000  1.0000000000000000  0.0000000000000000
  0.4750000000000000  1.0000000000000000  0.0000000000000000
  0.4500000000000000  1.0000000000000000  0.0000000000000000
  0.4250000000000000  1.0000000000000000  0.0000000000000000
  0.4000000000000000  1.0000000000000000  0.0000000000000000
  0.3750000000000000  1.0000000000000000  0.0000000000000000
  0.3500000000000000  1.0000000000000000  0.0000000000000000
  0.3250000000000000  1.0000000000000000  0.0000000000000000
  0.3000000000000000  1.0000000000000000  0.0000000000000000
  0.2750000000000000  1.0000000000000000  0.0000000000000000
  0.2500000000000000  1.0000000000000000  0.0000000000000000
  0.2250000000000000  1.0000000000000000  0.0000000000000000
  0.2000000000000000  1.0000000000000000  0.0000000000000000
  0.1750000000000000  1.0000000000000000  0.0000000000000000
  0.1500000000000000  1.0000000000000000  0.0000000000000000
  0.1250000000000000  1.0000000000000000  0.0000000000000000
  0.1000000000000000  1.0000000000000000  0.0000000000000000
  0.0750000000000000  1.0000000000000000  0.0000000000000000
  0.0500000000000000  1.0000000000000000  0.0000000000000000
  0.0250000000000000  1.0000000000000000  0.0000000000000000
  0.0000000000000000  0.5000000000000000  0.0000000000000000
  0.0000000000000000  0.7500000000000000  0.0000000000000000
  0.0000000000000000  0.8750000000000000  0.0000000000000000
  0.0000000000000000  0.9499800000000000  0.0000000000000000
  0.0000000000000000  0.9749760000000000  0.0000000000000000
  0.0000000000000000  0.9249740000000000  0.0000000000000000
  0.0000000000000000  0.8999870000000000  0.0000000000000000
  0.0000000000000000  0.8249800000000000  0.0000000000000000
  0.0000000000000000  0.8499760000000000  0.0000000000000000
  0.0000000000000000  0.7999740000000000  0.0000000000000000
  0.0000000000000000  0.7749870000000000  0.0000000000000000
  0.0000000000000000  0.6250000000000000  0.0000000000000000
  0.0000000000000000  0.6999800000000000  0.0000000000000000
  0.0000000000000000  0.7249760000000000  0.0000000000000000
  0.0000000000000000  0.6749740000000000  0.0000000000000000
  0.0000000000000000  0.6499870000000000  0.0000000000000000
  0.0000000000000000  0.5749800000000000  0.0000000000000000
  0.0000000000000000  0.5999760000000000  0.0000000000000000
  0.0000000000000000  0.5499740000000000  0.0000000000000000
  0.0000000000000000  0.5249870000000000  0.0000000000000000
  0.0000000000000000  0.2500000000000000  0.0000000000000000
  0.0000000000000000  0.3750000000000000  0.0000000000000000
  0.0000000000000000  0.4499800000000000  0.0000000000000000
  0.0000000000000000  0.4749760000000000  0.0000000000000000
  0.0000000000000000  0.4249740000000000  0.0000000000000000
  0.0000000000000000  0.3999870000000000  0.0000000000000000
  0.0000000000000000  0.3249800000000000  0.0000000000000000
  0.0000000000000000  0.3499760000000000  0.0000000000000000
  0.0000000000000000  0.2999740000000000  0.0000000000000000
  0.0000000000000000  0.2749870000000000  0.0000000000000000
  0.0000000000000000  0.1250000000000000  0.0000000000000000
  0.0000000000000000  0.1999800000000000  0.0000000000000000
  0.0000000000000000  0.2249760000000000  0.0000000000000000
  0.0000000000000000  0.1749740000000000  0.0000000000000000
  0.0000000000000000  0.1499870000000000  0.0000000000000000
  0.0000000000000000  0.0749800000000000  0.0000000000000000
  0.0000000000000000  0.0999760000000000  0.0000000000000000
  0.0000000000000000  0.0499740000000000  0.0000000000000000
  0.0000000000000000  0.0249870000000000  0.0000000000000000
  0.0250000000000000  0.0000000000000000  0.0000000000000000
  0.0500000000000000  0.0000000000000000  0.0000000000000000
  0.0750000000000000  0.0000000000000000  0.0000000000000000
  0.1000000000000000  0.0000000000000000  0.0000000000000000
  0.1250000000000000  0.0000000000000000  0.0000000000000000
  0.1500000000000000  0.0000000000000000  0.0000000000000000
  0.1750000000000000  0.0000000000000000  0.0000000000000000
  0.2000000000000000  0.0000000000000000  0.0000000000000000
  0.2250000000000000  0.0000000000000000  0.0000000000000000
  0.2500000000000000  0.0000000000000000  0.0000000000000000
  0.2750000000000000  0.0000000000000000  0.0000000000000000
  0.3000000000000000  0.0000000000000000  0.0000000000000000
  0.3250000000000000  0.0000000000000000  0.0000000000000000
  0.3500000000000000  0.0000000000000000  0.0000000000000000
  0.3750000000000000  0.0000000000000000  0.0000000000000000
  0.4000000000000000  0.0000000000000000  0.0000000000000000
  0.4250000000000000  0.0000000000000000  0.0000000000000000
  0.4500000000000000  0.0000000000000000  0.0000000000000000
  0.4750000000000000  0.0000000000000000  0.0000000000000000
  0.5000000000000000  0.0000000000000000  0.0000000000000000
  0.5250000000000000  0.0000000000000000  0.0000000000000000
  0.5500000000000000  0.0000000000000000  0.0000000000000000
  0.5750000000000000  0.0000000000000000  0.0000000000000000
  0.6000000000000000  0.0000000000000000  0.0000000000000000
  0.6250000000000000  0.0000000000000000  0.0000000000000000
  0.6500000000000000  0.0000000000000000  0.0000000000000000
  0.6750000000000000  0.0000000000000000  0.0000000000000000
  0.7000000000000000  0.0000000000000000  0.0000000000000000
  0.7250000000000000  0.0000000000000000  0.0000000000000000
  0.7500000000000000  0.0000000000000000  0.0000000000000000
  0.7750000000000000  0.0000000000000000  0.0000000000000000
  0.8000000000000000  0.0000000000000000  0.0000000000000000
  0.8250000000000000  0.0000000000000000  0.0000000000000000
  0.8500000000000000  0.0000000000000000  0.0000000000000000
  0.8750000000000000  0.0000000000000000  0.0000000000000000
  0.9000000000000000  0.0000000000000000  0.0000000000000000
  0.9250000000000000  0.0000000000000000  0.0000000000000000
  0.9500000000000000  0.0000000000000000  0.0000000000000000
  0.9750000000000000  0.0000000000000000  0.0000000000000000
  0.0250000000000000  0.0249870000000000  0.0000000000000000
  0.0250000000000000  0.0499740000000000  0.0000000000000000
[...]
POINT_DATA 1681
SCALARS concentration double
LOOKUP_TABLE default
  0.0000000000000000
  0.0000000000000000
  0.0000000000000000
  0.0000000000000000
  0.0000000000000000
  0.0000000000000000
  0.0000000000000000
  0.0000000000000000
  0.0000000000000000
  0.0000000000000000
  0.0000000000000000
  0.0000000000000000
  0.0000000000000000
  0.0000000000000000
  0.0000000000000000
  0.0000000000000000
  0.0000000000000000
  0.0000000000000000
  0.0000000000000000
  0.0000000000000000
  0.0000000000000000
  0.0000000000000000
  0.0000000000000000
  0.0000000000000000
  0.0000000000000000
  0.0000000000000000
  0.0000000000000000
  0.0000000000000000
  0.0000000000000000
  0.0000000000000000
  0.0000000000000000
  0.0000000000000000
  0.0000000000000000
  0.0000000000000000
  0.0000000000000000
  0.0000000000000000
  0.0000000000000000
  0.0000000000000000
  0.0000000000000000
  0.0000000000000000
  0.0000000000000000
  0.0000000000000000
  0.0000000000000000
  0.0000000000000000
  0.0000000000000000
  0.0000000000000000
  0.0000000000000000
  0.0000000000000000
  0.0000000000000000
  0.0000000000000000
  0.0000000000000000
  0.0000000000000000
  0.0000000000000000
  0.0000000000000000
  0.0000000000000000
  0.0000000000000000
  0.0000000000000000
  0.0000000000000000
  0.0000000000000000
  0.0000000000000000
  0.0000000000000000
  0.0000000000000000
  0.0000000000000000
  0.0000000000000000
  0.0000000000000000
  0.0000000000000000
  0.0000000000000000
  0.0000000000000000
  0.0000000000000000
  0.0000000000000000
  0.0000000000000000
  0.0000000000000000
  0.0000000000000000
  0.0000000000000000
  0.0000000000000000
  0.0000000000000000
  0.0000000000000000
  0.0000000000000000
  0.0000000000000000
  0.0000000000000000
  0.0000000000000000
  0.0000000000000000
  0.0000000000000000
  0.0000000000000000
  0.0000000000000000
  0.0000000000000000
  0.0000000000000000
  0.0000000000000000
  0.0000000000000000
  0.0000000000000000
  0.0000000000000000
  0.0000000000000000
  0.0000000000000000
  0.0000000000000000
  0.0000000000000000
  0.0000000000000000
  0.0000000000000000
  0.0000000000000000
  0.0000000000000000
  0.0000000000000000
  0.0000000000000000
  0.0000000000000000
  0.0000000000000000
  0.0000000000000000
  0.0000000000000000
  0.0000000000000000
  0.0000000000000000
  0.0000000000000000
  0.0000000000000000
  0.0000000000000000
  0.0000000000000000
  0.0000000000000000
  0.0000000000000000
  0.0000000000000000
  0.0000000000000000
  0.0000000000000000
  0.0000000000000000
  0.0000000000000000
  0.0000000000000000
  0.0000000000000000
  0.0000000000000000
  0.0000000000000000
  0.0000000000000000
  0.0000000000000000
  0.0000000000000000
  0.0000000000000000
  0.0000000000000000
  0.0000000000000000
  0.0000000000000000
  0.0000000000000000
  0.0000000000000000
  0.0000000000000000
  0.0000000000000000
  0.0000000000000000
  0.0000000000000000
  0.0000000000000000
  0.0000000000000000
  0.0000000000000000
  0.0000000000000000
  0.0000000000000000
  0.0000000000000000
  0.0000000000000000
  0.0000000000000000
  0.0000000000000000
  0.0000000000000000
  0.0000000000000000
  0.0000000000000000
  0.0000000000000000
  0.0000000000000000
  0.0000000000000000
  0.0000000000000000
  0.0000000000000000
  0.0000000000000000
  0.0000000000000000
  0.0000000000000000
  0.0000000000000000
  0.0000000000000000
  0.0000000000000000
  0.0000000000000000
  0.0000000000000000
  -0.0000649553471265
  0.0002215989538831
  0.0005133571406285
  0.0005072368143334
  0.0002563286016056
  -0.0000001794781732
  -0.0000152153059290
  0.0000027964587566
  0.0000009359356865
  -0.0000009764034867
  0.0000003551142131
  -0.0000000758509446
  0.0000000066768328
  0.0000000021318745
  -0.0000000012222435
  0.0000000003533288
  -0.0000000000752394
  0.0000000000124175
  -0.0000000000024311
  -0.0000000000001920
  -0.0000000000008271
  -0.0000000000011636
  -0.0000000000016768
  -0.0000000000018692
  -0.0000000000012724
  0.0000000000002227
  0.0000000000017111
  0.0000000000017765
  0.0000000000003484
  -0.0000000000005004
  0.0000000000008352
  0.0000000000027851
  0.0000000000030323
  0.0000000000023276
  0.0000000000023101
  0.0000000000020149
  0.0000000000006464
  -0.0000000000002354
  -0.0000000000001012
  0.0005709278528018
  0.0016474607077006
  0.0020459396379545
  0.0018194811731899
  0.0012113290989057
  0.0005140837029911
  0.0000144008255064
  0.0000019608244062
  -0.0000062601409869
  0.0000017918215179
  -0.0000002141915279
  -0.0000000433290031
  0.0000000334821627
  -0.0000000112795783
  0.0000000026261210
  -0.0000000004310877
  0.0000000000426278
  0.0000000000045021
  0.0000000000004345
  0.0000000000035706
  0.0000000000035067
  0.0000000000041087
  0.0000000000038509
  0.0000000000020093
  -0.0000000000014628
  -0.0000000000046192
  -0.0000000000042926
  -0.0000000000000581
  0.0000000000033437
  0.0000000000014422
  -0.0000000000024273
  -0.0000000000017357
  0.0000000000019287
  0.0000000000025474
  0.0000000000014792
  0.0000000000024170
  0.0000000000025907
  0.0000000000006090
  -0.0000000000002521
  0.0025508333264978
  0.0039968970888500
  0.0041955702407904
  0.0036223850348539
  0.0025074728334614
  0.0012384742850011
  0.0002607896673081
  -0.0000634347838900
  0.0000076812720872
  0.0000002253477134
  -0.0000004752542369
  0.0000001776949205
  -0.0000000454079718
  0.0000000078900261
  -0.0000000004066145
  -0.0000000003208512
  0.0000000001534275
  -0.0000000000501583
  0.0000000000065628
  -0.0000000000083706
  -0.0000000000054253
  -0.0000000000046887
  -0.0000000000004677
  0.0000000000059438
  0.0000000000111091
  0.0000000000091555
  -0.0000000000007912
  -0.0000000000090368
  -0.0000000000050681
  0.0000000000049855
  0.0000000000051428
  -0.0000000000028032
  -0.0000000000029859
  0.0000000000029354
  0.0000000000026656
  0.0000000000008068
  0.0000000000031818
  0.0000000000028024
  0.0000000000001359
  0.0056225764410021
  0.0066539896075712
  0.0065294589118272
  0.0054729410311304
  0.0037290265516034
  0.0018843443775410
  0.0004774235035044
  -0.0000854158827608
  0.0000174201214632
  -0.0000028868835563
  0.0000004419231019
  -0.0000000702919782
  0.0000000054409165
  0.0000000040674095
  -0.0000000027203623
  0.0000000009907094
  -0.0000000002731902
  0.0000000000598155
  -0.0000000000116127
  0.0000000000036103
  -0.0000000000025906
  -0.0000000000085958
  -0.0000000000186380
  -0.0000000000249278
  -0.0000000000179517
  0.0000000000039635
  0.0000000000220970
  0.0000000000135758
  -0.0000000000110190
  -0.0000000000142143
  0.0000000000056460
  0.0000000000093979
  -0.0000000000051511
  -0.0000000000041697
  0.0000000000050875
  0.0000000000014070
  0.0000000000004222
  0.0000000000047684
  0.0000000000018596
  0.0092340025778505
  0.0090250299405895
  0.0085781799222649
  0.0068769652694180
  0.0044873955363328
  0.0021514456814307
  0.0004515041060238
  -0.0001256730312417
  0.0000317513432952
  -0.0000054975679885
  0.0000004851452655
  0.0000000290108254
  -0.0000000057750850
  -0.0000000060148811
  0.0000000033962961
  -0.0000000009410832
  0.0000000001891734
  0.0000000000058662
  0.0000000000190894
  0.0000000000275732
  0.0000000000349189
  0.0000000000464365
  0.0000000000500624
  0.0000000000301992
  -0.0000000000152306
  -0.0000000000523502
  -0.0000000000339843
  0.0000000000239275
  0.0000000000379453
  -0.0000000000096258
  -0.0000000000269155
  0.0000000000098135
  0.0000000000141230
  -0.0000000000113990
  -0.0000000000019723
  0.0000000000076355
  -0.0000000000026316
  0.0000000000029652
  0.0000000000051919
  0.0127041545332081
  0.0105737490871649
  0.0098858427058595
  0.0074422049345350
  0.0044929519796008
  0.0017956482633141
  0.0000996303659634
  -0.0001046412548490
  0.0000489062518862
  -0.0000153929785254
  0.0000034216232689
  -0.0000004624500052
  -0.0000000071563678
  0.0000000226610680
  -0.0000000066186509
  0.0000000008973400
  0.0000000000188920
  -0.0000000001335215
  -0.0000000000330460
  -0.0000000000876819
  -0.0000000000849267
  -0.0000000000812449
  -0.0000000000347387
  0.0000000000518367
  0.0000000001207910
  0.0000000000806659
  -0.0000000000504735
  -0.0000000000975007
  0.0000000000105946
  0.0000000000727858
  -0.0000000000138441
  -0.0000000000434835
  0.0000000000256947
  0.0000000000120989
  -0.0000000000212489
  0.0000000000095814
  0.0000000000028102
  -0.0000000000048699
  0.0000000000090156
  0.0154154023756634
  0.0109677335997422
  0.0101929385291405
  0.0068482171413136
  0.0033958158614557
  0.0006817086468863
  -0.0002170557415923
  0.0000304050245079
  0.0000163198409482
  -0.0000138551631979
  0.0000059785472304
  -0.0000018366315323
  0.0000004206111484
  -0.0000000635108020
  0.0000000024858926
  0.0000000025561721
  -0.0000000011833083
  0.0000000004336537
  -0.0000000000275215
  0.0000000001227515
  0.0000000000610897
  -0.0000000000091855
  -0.0000000001593735
  -0.0000000002688829
  -0.0000000001795731
  0.0000000001047396
  0.0000000002407624
  0.0000000000091101
  -0.0000000001856373
  0.0000000000011358
  0.0000000001245791
  -0.0000000000484601
  -0.0000000000489231
  0.0000000000596905
  -0.0000000000172223
  -0.0000000000134210
  0.0000000000216875
  -0.0000000000160064
  0.0000000000111995
  0.0174525424160766
  0.0099337334842795
  0.0089715933358861
  0.0046513366467923
  0.0013365558165569
  -0.0001883463242435
  -0.0000885688851389
  0.0000682659112646
  -0.0000212223265887
  0.0000009848796013
  0.0000027397848088
  -0.0000018313470846
  0.0000007677601667
  -0.0000002529779862
  0.0000000658259785
  -0.0000000150280094
  0.0000000031397485
  -0.0000000004449806
  0.0000000001648063
  0.0000000000892306
  0.0000000002255104
  0.0000000004141310
  0.0000000005666948
  0.0000000003622909
  -0.0000000002182696
  -0.0000000005709822
  -0.0000000001066741
  0.0000000004440365
  0.0000000000904978
  -0.0000000003296311
  0.0000000000615356
  0.0000000001708712
  -0.0000000001493951
  0.0000000000222001
  0.0000000000616073
  -0.0000000000637336
  0.0000000000465901
  -0.0000000000239152
  0.0000000000101072
  0.0186768079040469
  0.0080468215998466
  0.0070311904472390
  0.0020938308388146
  0.0000504141683512
  -0.0002364372350898
  0.0000652862045860
  0.0000146812661660
  -0.0000206501498265
  0.0000097151905365
  -0.0000025069388609
  0.0000000196641398
  0.0000003613708478
  -0.0000002305093269
  0.0000001108652906
  -0.0000000387782432
  0.0000000123080074
  -0.0000000045422316
  0.0000000007195730
  -0.0000000011958844
  -0.0000000007822023
  -0.0000000011354032
  -0.0000000006278695
  0.0000000004533512
  0.0000000012926707
  0.0000000004337605
  -0.0000000009871337
  -0.0000000004540272
  0.0000000007949059
  0.0000000000371903
  -0.0000000005290354
  0.0000000003332131
  0.0000000000296791
  -0.0000000002108739
  0.0000000002012729
  -0.0000000001070796
  0.0000000000676767
  -0.0000000000221041
  0.0000000000054306
  0.0190741543151094
  0.0055182470693201
  0.0050420095499142
  0.0002277781361049
  -0.0002378822515133
  -0.0000472672159918
  0.0000743004744533
  -0.0000276083490907
  0.0000000885558816
  0.0000056785781422
  -0.0000038061191399
  0.0000015674015360
  -0.0000004176156526
  0.0000000381061040
  0.0000000137011220
  -0.0000000305180036
  0.0000000151441258
  -0.0000000051299618
  0.0000000037599464
  0.0000000007802879
  0.0000000020291350
  0.0000000007640542
  -0.0000000009782717
  -0.0000000028001461
  -0.0000000013734214
  0.0000000020004620
  0.0000000016000030
  -0.0000000017040150
  -0.0000000006243689
  0.0000000014613432
  -0.0000000006145320
  -0.0000000003419968
  0.0000000006669790
  -0.0000000005489030
  0.0000000002962085
  -0.0000000001069225
  0.0000000000948240
  0.0000000000023720
  -0.0000000000011566
  0.0187140963286016
  0.0026885594656650
  0.0035001554607727
  -0.0008302238747279
  -0.0000151737401377
  0.0000336303504864
  0.0000241611340577
  -0.0000281026617273
  0.0000128537764284
  -0.0000023895624047
  -0.0000010824888314
  0.0000012662455387
  -0.0000007487057266
  0.0000003126342464
  -0.0000000716978970
  0.0000000513427659
  -0.0000000068798637
  -0.0000000004678341
  -0.0000000005194585
  -0.0000000020846202
  -0.0000000001178031
  0.0000000024882852
  0.0000000056661761
  0.0000000038018176
  -0.0000000036163693
  -0.0000000047162124
  0.0000000030338095
  0.0000000027985988
  -0.0000000035661870
  0.0000000006857145
  0.0000000015635170
  -0.0000000019576657
  0.0000000013806150
  -0.0000000007244763
  0.0000000002492501
  -0.0000000000879570
  0.0000000001573280
  0.0000000000987418
  0.0000000000046645
  0.0177650987840126
  -0.0000578556657706
  0.0026466833939454
  -0.0013255145853241
  0.0003374414090756
  -0.0000355717327310
  0.0000041729512368
  -0.0000128775607642
  0.0000120780410859
  -0.0000063828479696
  0.0000020796304789
  -0.0000001934637024
  -0.0000002597598937
  0.0000002868556033
  -0.0000002093633406
  0.0000000069569389
  -0.0000000446935280
  0.0000000153370527
  -0.0000000108722464
  0.0000000006046332
  -0.0000000087271753
  -0.0000000101364020
  -0.0000000093616076
  0.0000000055200861
  0.0000000121375257
  -0.0000000036335159
  -0.0000000092382468
  0.0000000073588395
  0.0000000009710779
  -0.0000000055035824
  0.0000000052571329
  -0.0000000032488677
  0.0000000015585999
  -0.0000000005830823
  0.0000000000867418
  -0.0000000001625209
  0.0000000002439157
  0.0000000004021094
  0.0000000001009662
  0.0164658002958234
  -0.0024387430980908
  0.0024527417220210
  -0.0015779900335467
  0.0006624804792179
  -0.0001937143397601
  0.0000421630437812
  -0.0000117299478997
  0.0000080589684321
  -0.0000059966041651
  0.0000034151508655
  -0.0000014653555316
  0.0000004371992053
  -0.0000001186929138
  -0.0000000001607066
  0.0000002079387291
  0.0000000324044561
  0.0000000146502370
  0.0000000109790852
  0.0000000203955857
  0.0000000203937770
  0.0000000183460748
  -0.0000000059791125
  -0.0000000274019637
  -0.0000000012604982
  0.0000000249406859
  -0.0000000111966202
  -0.0000000095173375
  0.0000000164601578
  -0.0000000128034842
  0.0000000070020083
  -0.0000000030378931
  0.0000000011077828
  -0.0000000002308176
  -0.0000000000342252
  -0.0000000004893890
  0.0000000001604015
  0.0000000011635005
  0.0000000005903964
  0.0150634186199688
  -0.0043377155568181
  0.0027456933271526
  -0.0018174076278859
  0.0009524463236059
  -0.0003920463241440
  0.0001314674406809
  -0.0000390547216329
  0.0000129188006018
  -0.0000061486609633
  0.0000036303221038
  -0.0000020666261373
  0.0000010269662943
  -0.0000003751400427
  0.0000001906534273
  -0.0000003146882101
  -0.0000002153461695
  0.0000000081272562
  -0.0000000431424054
  -0.0000000409895618
  -0.0000000327637218
  0.0000000068171317
  0.0000000525827591
  0.0000000241982034
  -0.0000000546336210
  0.0000000041295124
  0.0000000388442733
  -0.0000000428291909
  0.0000000278295184
  -0.0000000134516599
  0.0000000052657339
  -0.0000000017733212
  0.0000000004642919
  0.0000000001412492
  0.0000000001355128
  -0.0000000011737570
  -0.0000000007042854
  0.0000000026542343
  0.0000000024152866
  0.0137629979639763
  -0.0057802496309394
  0.0033338411765619
  -0.0021546280938625
  0.0012530383764713
  -0.0006186055262249
  0.0002622509737887
  -0.0000987370171508
  0.0000350139154532
  -0.0000129713572544
  0.0000055797447896
  -0.0000028129474581
  0.0000015269631799
  -0.0000008391307388
  0.0000002953338157
  0.0000000810136038
  0.0000006505871473
  -0.0000000058850518
  0.0000000286345030
  0.0000000763744259
  -0.0000000183740912
  -0.0000000984490076
  -0.0000000788715321
  0.0000000858259799
  0.0000000515520342
  -0.0000001179254334
  0.0000000962078099
  -0.0000000525122748
  0.0000000221960317
  -0.0000000077797326
  0.0000000023874466
  -0.0000000006652624
  -0.0000000000939772
  0.0000000004113818
  0.0000000010038953
  -0.0000000021217519
  -0.0000000037048045
  0.0000000047322306
  0.0000000081221507
  0.0127073621248290
  -0.0068715821153475
  0.0040703434013460
  -0.0026151835954488
  0.0016054849445869
  -0.0008825528826769
  0.0004323007233819
  -0.0001921025523525
  0.0000795782341232
  -0.0000319791552568
  0.0000130816773989
  -0.0000057175522956
  0.0000027401390059
  -0.0000014319046785
  0.0000008906829693
  -0.0000005662195560
  -0.0000007182341692
  -0.0000004587974043
  0.0000003243806712
  -0.0000001931922516
  0.0000003080183874
  0.0000001450209166
  -0.0000000536086264
  -0.0000002396890486
  0.0000002854357792
  -0.0000001803974037
  0.0000000817555036
  -0.0000000297293801
  0.0000000092262598
  -0.0000000025984415
  0.0000000007451207
  -0.0000000000217066
  -0.0000000007924875
  0.0000000003526133
  0.0000000034640864
  -0.0000000029042974
  -0.0000000114345750
  0.0000000057382048
  0.0000000239950653
  0.0119820503910883
  -0.0077370964424754
  0.0048613060920362
  -0.0031765181997774
  0.0020236515655442
  -0.0011919099611773
  0.0006418592719319
  -0.0003192981137871
  0.0001493186919601
  -0.0000671976615211
  0.0000298231710503
  -0.0000134182718758
  0.0000062746950792
  -0.0000031029152024
  0.0000016285718822
  -0.0000009598107873
  0.0000017050622574
  0.0000006368103760
  -0.0000005345960784
  -0.0000002135061036
  -0.0000005226269833
  -0.0000000888199724
  0.0000006613121122
  -0.0000005463108884
  0.0000002660068889
  -0.0000000970230049
  0.0000000297266280
  -0.0000000082865074
  0.0000000022754882
  -0.0000000007408384
  0.0000000001766386
  0.0000000009388695
  -0.0000000022582929
  -0.0000000008896316
  0.0000000099107357
  -0.0000000027948356
  -0.0000000288946360
  0.0000000003651978
  0.0000000647167701
  0.0116302831319185
  -0.0084789632573611
  0.0056417367706887
  -0.0037850608768979
  0.0024851067155635
  -0.0015342741834867
  0.0008804425217827
  -0.0004728543864940
  0.0002408978787566
  -0.0001185161819722
  0.0000572876780991
  -0.0000277165808781
  0.0000136707485747
  -0.0000069794224550
  0.0000037141930266
  -0.0000021600940476
  0.0000003521193559
  -0.0000026812200479
  0.0000020364225852
  0.0000004050879252
  0.0000012036131315
  -0.0000016779690433
  0.0000008822619701
  -0.0000002972498436
  0.0000000813315371
  -0.0000000215775336
  0.0000000061658485
  -0.0000000019812000
  0.0000000009172473
  -0.0000000006412020
  -0.0000000005222857
  0.0000000039826933
  -0.0000000060605999
  -0.0000000057005626
  0.0000000271902463
  -0.0000000014617634
  -0.0000000671531506
  -0.0000000233712903
  0.0000001635674714
  0.0116649907846651
  -0.0091446673436644
  0.0063380026475349
  -0.0043521847949643
  0.0029227292291131
  -0.0018606079992585
  0.0011112023934133
  -0.0006261980267569
  0.0003369563867174
  -0.0001758990530972
  0.0000904224776426
  -0.0000465029772702
  0.0000243290640373
  -0.0000131311410066
  0.0000074700033978
  -0.0000043365939868
  0.0000037363326173
  -0.0000001268651925
  -0.0000001152941836
  -0.0000044722432913
  0.0000030250388724
  -0.0000007726415211
  0.0000000966596626
  -0.0000000117441342
  0.0000000052020117
  -0.0000000022033402
  0.0000000009887008
  -0.0000000012974350
  0.0000000023494833
  -0.0000000025501543
  -0.0000000019588393
  0.0000000135933429
  -0.0000000180900699
  -0.0000000185288449
  0.0000000744088447
  -0.0000000025329801
  -0.0000001542110512
  -0.0000000854286568
  0.0000003945213652
  0.0120698636721331
  -0.0096981787946256
  0.0068289581535693
  -0.0047407992401964
  0.0032182898452169
  -0.0020766687447878
  0.0012614462803056
  -0.0007254656014735
  0.0003996662969270
  -0.0002142386518323
  0.0001134019395407
  -0.0000601957456622
  0.0000325452700753
  -0.0000182243443610
  0.0000107030518815
  -0.0000069892927572
  0.0000038757736398
  -0.0000051513564617
  0.0000065662164154
  -0.0000001088994051
  -0.0000012417837431
  0.0000003561341580
  -0.0000000327340238
  0.0000000015391145
  -0.0000000026021143
  0.0000000021390506
  -0.0000000005509233
  -0.0000000032542200
  0.0000000097006280
  -0.0000000135146758
  0.0000000000563512
  0.0000000397245092