# vtk DataFile Version 2.0
UVP for 1D advection-diffusion problem
ASCII

DATASET UNSTRUCTURED_GRID
POINTS 9 double
  1.0000000000000000  1.0000000000000000  0.0000000000000000
  0.0000000000000000  1.0000000000000000  0.0000000000000000
  1.0000000000000000  0.0000000000000000  0.0000000000000000
  0.0000000000000000  0.0000000000000000  0.0000000000000000
  1.0000000000000000  0.5000000000000000  0.0000000000000000
  0.5000000000000000  1.0000000000000000  0.0000000000000000
  0.0000000000000000  0.5000000000000000  0.0000000000000000
  0.5000000000000000  0.0000000000000000  0.0000000000000000
  0.5000000000000000  0.5000000000000000  0.0000000000000000

CELLS  4  20
  4  3  7  8  6
  4  6  8  5  1
  4  7  2  4  8
  4  8  4  0  5

CELL_TYPES 4
9
9
9
9

POINT_DATA 9
SCALARS concentration double
LOOKUP_TABLE default
  1.0000000000000000
  0.0000000000000000
  1.0000000000000000
  0.0000000000000000
  1.0000000000000000
  -0.0005740869002585
  0.0000000000000000
  -0.0005740869002644
  -0.0005740869002592
SCALARS ga double
LOOKUP_TABLE default
  0.0000000000000000
  0.0000000000000000
  0.0000000000000000
  0.0000000000000000
  0.0000000000000000
  0.0000000000000000
  0.0000000000000000
  0.0000000000000000
  0.0000000000000000
SCALARS tau double
LOOKUP_TABLE default
  0.0000000000000000
  0.0000000000000000
  0.0000000000000000
  0.0000000000000000
  0.0000000000000000
  0.0000000000000000
  0.0000000000000000
  0.0000000000000000
  0.0000000000000000
